LAMMPS (10 Dec 2025)
Reading data file ...
  orthogonal box = (-140 -140 -120) to (140 140 120)
  1 by 1 by 1 MPI processor grid
  reading atoms ...
  107280 atoms
  reading velocities ...
  107280 velocities
  scanning bonds ...
  2 = max bonds/atom
  scanning angles ...
  1 = max angles/atom
  orthogonal box = (-140 -140 -120) to (140 140 120)
  1 by 1 by 1 MPI processor grid
  reading bonds ...
  60000 bonds
  reading angles ...
  30000 angles
Finding 1-2 1-3 1-4 neighbors ...
  special bond factors lj:    0        0        0       
  special bond factors coul:  0        0        0       
     2 = max # of 1-2 neighbors
     1 = max # of 1-3 neighbors
     1 = max # of 1-4 neighbors
     2 = max # of special neighbors
  special bonds CPU = 0.036 seconds
  read_data CPU = 1.179 seconds
17280 atoms in group scaffold
90000 atoms in group water
Generated 0 of 6 mixed pair_coeff terms from geometric mixing rule
Neighbor list info ...
  update: every = 1 steps, delay = 0 steps, check = yes
  max neighbors/atom: 2000, page size: 100000
  master list distance cutoff = 12
  ghost atom cutoff = 12
  binsize = 6, bins = 47 47 40
  1 neighbor lists, perpetual/occasional/extra = 1 0 0
  (1) pair lj/cut/coul/cut, perpetual
      attributes: half, newton on
      pair build: half/bin/newton
      stencil: half/bin/3d
      bin: standard
Setting up cg style minimization ...
  Unit style    : real
  Current step  : 0
Per MPI rank memory allocation (min/avg/max) = 93.35 | 93.35 | 93.35 Mbytes
   Step        Atoms        PotEng         TotEng         Press           Fmax     
         0      107280  -146575.55     -146575.55     -145.46481      27.539671    
         5      107280  -158120.85     -158120.85     -144.12307      27.974516    
Loop time of 26.0714 on 1 procs for 5 steps with 107280 atoms

99.9% CPU use with 1 MPI tasks x no OpenMP threads

Minimization stats:
  Stopping criterion = linesearch alpha is zero
  Energy initial, next-to-last, final = 
      -146575.55276938  -158120.853702256  -158120.853702256
  Force two-norm initial, final = 2031.6458 1994.2087
  Force max component initial, final = 27.539671 27.974516
  Final line search alpha, max atom move = 1.6255735e-15 4.5474632e-14
  Iterations, force evaluations = 5 104

MPI task timing breakdown:
Section |  min time  |  avg time  |  max time  |%varavg| %total
---------------------------------------------------------------
Pair    | 25.314     | 25.314     | 25.314     |   0.0 | 97.10
Bond    | 0.42477    | 0.42477    | 0.42477    |   0.0 |  1.63
Neigh   | 0          | 0          | 0          |   0.0 |  0.00
Comm    | 0.00010811 | 0.00010811 | 0.00010811 |   0.0 |  0.00
Output  | 0          | 0          | 0          |   0.0 |  0.00
Modify  | 0.022503   | 0.022503   | 0.022503   |   0.0 |  0.09
Other   |            | 0.3095     |            |       |  1.19

Nlocal:         107280 ave      107280 max      107280 min
Histogram: 1 0 0 0 0 0 0 0 0 0
Nghost:              0 ave           0 max           0 min
Histogram: 1 0 0 0 0 0 0 0 0 0
Neighs:    1.00354e+07 ave 1.00354e+07 max 1.00354e+07 min
Histogram: 1 0 0 0 0 0 0 0 0 0

Total # of neighbors = 10035446
Ave neighs/atom = 93.544426
Ave special neighs/atom = 1.6778523
Neighbor list builds = 0
Dangerous builds = 0
System init for write_data ...
Generated 0 of 6 mixed pair_coeff terms from geometric mixing rule
WARNING: Not all mixed pair coeffs generated from mixing. Use write_data with 'pair ij' option to store all pair coeffs. (../write_data.cpp:364)
Total wall time: 0:00:28
