LAMMPS (10 Dec 2025)
Reading data file ...
  orthogonal box = (-140 -140 -120) to (140 140 120)
  1 by 1 by 1 MPI processor grid
WARNING: Pair style lj/cut/coul/cut in data file differs from currently defined pair style zero (../read_data.cpp:811)
WARNING: Bond style harmonic in data file differs from currently defined bond style zero (../read_data.cpp:835)
WARNING: Angle style harmonic in data file differs from currently defined angle style zero (../read_data.cpp:848)
  reading atoms ...
  107280 atoms
  reading velocities ...
  107280 velocities
  scanning bonds ...
  2 = max bonds/atom
  scanning angles ...
  1 = max angles/atom
  orthogonal box = (-140 -140 -120) to (140 140 120)
  1 by 1 by 1 MPI processor grid
  reading bonds ...
  60000 bonds
  reading angles ...
  30000 angles
Finding 1-2 1-3 1-4 neighbors ...
  special bond factors lj:    0        0        0       
  special bond factors coul:  0        0        0       
     2 = max # of 1-2 neighbors
     1 = max # of 1-3 neighbors
     1 = max # of 1-4 neighbors
     2 = max # of special neighbors
  special bonds CPU = 0.038 seconds
  read_data CPU = 1.310 seconds
17280 atoms in group scaffold
90000 atoms in group water
30000 atoms in group oxygen
60000 atoms in group hydrogen
Finding SHAKE clusters ...
       0 = # of size 2 clusters
       0 = # of size 3 clusters
       0 = # of size 4 clusters
   30000 = # of frozen angles
  find clusters CPU = 0.036 seconds
WARNING: Temperature for fix modify is not for group all (../fix_nh.cpp:1403)
Generated 0 of 6 mixed pair_coeff terms from geometric mixing rule
Neighbor list info ...
  update: every = 1 steps, delay = 0 steps, check = yes
  max neighbors/atom: 4000, page size: 400000
  master list distance cutoff = 12
  ghost atom cutoff = 12
  binsize = 6, bins = 47 47 40
  1 neighbor lists, perpetual/occasional/extra = 1 0 0
  (1) pair lj/cut/coul/cut, perpetual
      attributes: half, newton on
      pair build: half/bin/newton
      stencil: half/bin/3d
      bin: standard
Setting up Verlet run ...
  Unit style    : real
  Current step  : 10000
  Time step     : 0.1
Per MPI rank memory allocation (min/avg/max) = 112.9 | 112.9 | 112.9 Mbytes
   Step        Atoms         Temp         c_twater        PotEng         KinEng         TotEng         Press      c_msdwater[4] 
     10000      107280   232.91915      300.00099     -270337.13      53653.863     -216683.26     -174.00664      2.2296681e-13
     11000      107280   233.41969      300.64568     -264212.04      53769.163     -210442.87     -227.0838       0.25956929   
     12000      107280   233.39346      300.6119      -278421.61      53763.123     -224658.48     -252.09412      0.58596762   
     13000      107280   232.89797      299.97371     -260122.67      53648.984     -206473.69     -227.16661      0.87621378   
     14000      107280   233.02101      300.13217     -249820.67      53677.326     -196143.34     -213.23894      1.1496071    
     15000      107280   233.65449      300.94811     -252513.8       53823.252     -198690.55     -223.37028      1.4265695    
     16000      107280   232.51809      299.48442     -242936.9       53561.477     -189375.42     -213.02062      1.7188806    
     17000      107280   233.56254      300.82968     -253230.33      53802.071     -199428.26     -222.8514       2.0161666    
     18000      107280   233.2874       300.47529     -264522.14      53738.689     -210783.45     -239.83146      2.33213      
     19000      107280   232.55514      299.53214     -250698.12      53570.012     -197128.11     -220.41547      2.6585213    
     20000      107280   232.52283      299.49052     -253791.26      53562.569     -200228.69     -226.79799      2.9828406    
     21000      107280   232.97567      300.07378     -257162.01      53666.882     -203495.12     -231.99599      3.3185783    
     22000      107280   231.90807      298.6987      -242853.8       53420.956     -189432.84     -219.47646      3.6602105    
     23000      107280   233.10086      300.23502     -239922.34      53695.72      -186226.62     -211.85048      4.0158828    
     24000      107280   232.73419      299.76276     -255147.83      53611.256     -201536.57     -233.37255      4.3831911    
     25000      107280   232.44966      299.39628     -235494.9       53545.713     -181949.18     -211.80465      4.7442421    
     26000      107280   232.68184      299.69532     -236193.07      53599.197     -182593.87     -209.38969      5.1181093    
     27000      107280   232.3743       299.29921     -228340.68      53528.353     -174812.32     -197.15576      5.5025841    
     28000      107280   232.75333      299.78741     -244302.5       53615.665     -190686.83     -217.96759      5.8964201    
     29000      107280   232.86868      299.93598     -236678.21      53642.237     -183035.97     -211.13442      6.2918132    
     30000      107280   232.9696       300.06597     -231674.61      53665.485     -178009.12     -206.8124       6.6942909    
Loop time of 5085.6 on 1 procs for 20000 steps with 107280 atoms

Performance: 0.034 ns/day, 706.333 hours/ns, 3.933 timesteps/s, 421.897 katom-step/s
99.5% CPU use with 1 MPI tasks x no OpenMP threads

MPI task timing breakdown:
Section |  min time  |  avg time  |  max time  |%varavg| %total
---------------------------------------------------------------
Pair    | 4793.3     | 4793.3     | 4793.3     |   0.0 | 94.25
Bond    | 0.028791   | 0.028791   | 0.028791   |   0.0 |  0.00
Neigh   | 61.527     | 61.527     | 61.527     |   0.0 |  1.21
Comm    | 0.91838    | 0.91838    | 0.91838    |   0.0 |  0.02
Output  | 2.0071     | 2.0071     | 2.0071     |   0.0 |  0.04
Modify  | 217.2      | 217.2      | 217.2      |   0.0 |  4.27
Other   |            | 10.62      |            |       |  0.21

Nlocal:         107280 ave      107280 max      107280 min
Histogram: 1 0 0 0 0 0 0 0 0 0
Nghost:              0 ave           0 max           0 min
Histogram: 1 0 0 0 0 0 0 0 0 0
Neighs:    1.57782e+07 ave 1.57782e+07 max 1.57782e+07 min
Histogram: 1 0 0 0 0 0 0 0 0 0

Total # of neighbors = 15778153
Ave neighs/atom = 147.07451
Ave special neighs/atom = 1.6778523
Neighbor list builds = 125
Dangerous builds = 0
System init for write_data ...
Generated 0 of 6 mixed pair_coeff terms from geometric mixing rule
WARNING: Not all mixed pair coeffs generated from mixing. Use write_data with 'pair ij' option to store all pair coeffs. (../write_data.cpp:364)
Total wall time: 1:24:48
