LAMMPS (10 Dec 2025)
Reading data file ...
  orthogonal box = (-140 -140 -120) to (140 140 120)
  1 by 1 by 1 MPI processor grid
WARNING: Pair style lj/cut/coul/cut in data file differs from currently defined pair style zero (../read_data.cpp:811)
WARNING: Bond style harmonic in data file differs from currently defined bond style zero (../read_data.cpp:835)
WARNING: Angle style harmonic in data file differs from currently defined angle style zero (../read_data.cpp:848)
  reading atoms ...
  107280 atoms
  reading velocities ...
  107280 velocities
  scanning bonds ...
  2 = max bonds/atom
  scanning angles ...
  1 = max angles/atom
  orthogonal box = (-140 -140 -120) to (140 140 120)
  1 by 1 by 1 MPI processor grid
  reading bonds ...
  60000 bonds
  reading angles ...
  30000 angles
Finding 1-2 1-3 1-4 neighbors ...
  special bond factors lj:    0        0        0       
  special bond factors coul:  0        0        0       
     2 = max # of 1-2 neighbors
     1 = max # of 1-3 neighbors
     1 = max # of 1-4 neighbors
     2 = max # of special neighbors
  special bonds CPU = 0.040 seconds
  read_data CPU = 1.312 seconds
17280 atoms in group scaffold
90000 atoms in group water
30000 atoms in group oxygen
60000 atoms in group hydrogen
Finding SHAKE clusters ...
       0 = # of size 2 clusters
       0 = # of size 3 clusters
       0 = # of size 4 clusters
   30000 = # of frozen angles
  find clusters CPU = 0.038 seconds
WARNING: Temperature for fix modify is not for group all (../fix_nh.cpp:1403)
Generated 0 of 6 mixed pair_coeff terms from geometric mixing rule
Neighbor list info ...
  update: every = 1 steps, delay = 0 steps, check = yes
  max neighbors/atom: 4000, page size: 400000
  master list distance cutoff = 12
  ghost atom cutoff = 12
  binsize = 6, bins = 47 47 40
  1 neighbor lists, perpetual/occasional/extra = 1 0 0
  (1) pair lj/cut/coul/cut, perpetual
      attributes: half, newton on
      pair build: half/bin/newton
      stencil: half/bin/3d
      bin: standard
Setting up Verlet run ...
  Unit style    : real
  Current step  : 20000
  Time step     : 0.1
Per MPI rank memory allocation (min/avg/max) = 111.4 | 111.4 | 111.4 Mbytes
   Step        Atoms         Temp         c_twater        PotEng         KinEng         TotEng         Press      c_msdwater[4] 
     20000      107280   232.96656      300.06205     -252538.32      53664.784     -198873.53     -143.23149      2.2419481e-24
     21000      107280   231.55866      298.24866     -249827.96      53340.467     -196487.49     -142.67362      0.24604234   
     22000      107280   233.40214      300.62308     -265212.84      53765.122     -211447.72     -152.7696       0.53693056   
     23000      107280   233.70029      301.00709     -255679.16      53833.8       -201845.36     -143.57069      0.78082384   
     24000      107280   232.47175      299.42473     -252335.85      53550.802     -198785.05     -140.80478      1.007681     
     25000      107280   232.27234      299.16789     -257818.47      53504.867     -204313.6      -145.04314      1.2406071    
     26000      107280   233.08929      300.22013     -257269.12      53693.056     -203576.06     -146.04256      1.4814898    
     27000      107280   233.96315      301.34566     -258804.61      53894.353     -204910.26     -150.87998      1.7441638    
     28000      107280   232.97874      300.07773     -256434.87      53667.588     -202767.28     -144.91688      2.0173703    
     29000      107280   232.44639      299.39207     -256842.89      53544.961     -203297.93     -143.83364      2.2940366    
     30000      107280   232.74188      299.77266     -244481.21      53613.028     -190868.18     -124.22603      2.5836879    
     31000      107280   232.41336      299.34953     -265773.56      53537.352     -212236.21     -151.36101      2.8911595    
     32000      107280   233.7286       301.04356     -263284.81      53840.323     -209444.49     -149.43486      3.2055553    
     33000      107280   233.17499      300.33051     -247315.87      53712.796     -193603.07     -129.75493      3.5371964    
     34000      107280   232.56187      299.54081     -260187.05      53571.562     -206615.49     -148.1841       3.8773948    
     35000      107280   231.92975      298.72663     -260284.06      53425.951     -206858.11     -147.57384      4.226502     
     36000      107280   232.6273       299.62508     -260725.58      53586.633     -207138.95     -148.93717      4.5850381    
     37000      107280   232.16969      299.03568     -263425.9       53481.222     -209944.67     -149.82883      4.9632661    
     38000      107280   232.26545      299.15902     -260802.99      53503.281     -207299.71     -147.28574      5.355509     
     39000      107280   232.80651      299.85591     -254028.49      53627.916     -200400.57     -136.54776      5.7484027    
     40000      107280   231.92084      298.71515     -255913.46      53423.897     -202489.56     -139.55378      6.1635158    
     41000      107280   234.07849      301.49422     -247055.35      53920.921     -193134.43     -131.28084      6.5945584    
     42000      107280   232.84338      299.90339     -245575.88      53636.408     -191939.47     -122.4813       7.0312282    
     43000      107280   232.74636      299.77843     -251702.67      53614.06      -198088.61     -135.81121      7.4686089    
     44000      107280   232.24487      299.13251     -242108.46      53498.54      -188609.92     -124.35805      7.9069405    
     45000      107280   233.67374      300.9729      -235014.24      53827.685     -181186.56     -116.53108      8.3598978    
     46000      107280   233.75313      301.07515     -248082.94      53845.973     -194236.97     -128.44791      8.8068959    
     47000      107280   232.70804      299.72907     -253980.6       53605.233     -200375.36     -138.49161      9.2583401    
     48000      107280   233.34175      300.5453      -241799.73      53751.211     -188048.52     -121.95276      9.725193     
     49000      107280   232.06718      298.90365     -247431.3       53457.609     -193973.7      -126.5394       10.209754    
     50000      107280   233.5421       300.80335     -253935.68      53797.362     -200138.32     -135.34364      10.696349    
Loop time of 7447.6 on 1 procs for 30000 steps with 107280 atoms

Performance: 0.035 ns/day, 689.593 hours/ns, 4.028 timesteps/s, 432.139 katom-step/s
99.3% CPU use with 1 MPI tasks x no OpenMP threads

MPI task timing breakdown:
Section |  min time  |  avg time  |  max time  |%varavg| %total
---------------------------------------------------------------
Pair    | 7074       | 7074       | 7074       |   0.0 | 94.98
Bond    | 0.050566   | 0.050566   | 0.050566   |   0.0 |  0.00
Neigh   | 91.044     | 91.044     | 91.044     |   0.0 |  1.22
Comm    | 1.3723     | 1.3723     | 1.3723     |   0.0 |  0.02
Output  | 3.0243     | 3.0243     | 3.0243     |   0.0 |  0.04
Modify  | 262.97     | 262.97     | 262.97     |   0.0 |  3.53
Other   |            | 15.11      |            |       |  0.20

Nlocal:         107280 ave      107280 max      107280 min
Histogram: 1 0 0 0 0 0 0 0 0 0
Nghost:              0 ave           0 max           0 min
Histogram: 1 0 0 0 0 0 0 0 0 0
Neighs:    1.57351e+07 ave 1.57351e+07 max 1.57351e+07 min
Histogram: 1 0 0 0 0 0 0 0 0 0

Total # of neighbors = 15735136
Ave neighs/atom = 146.67353
Ave special neighs/atom = 1.6778523
Neighbor list builds = 187
Dangerous builds = 0
System init for write_data ...
Generated 0 of 6 mixed pair_coeff terms from geometric mixing rule
WARNING: Not all mixed pair coeffs generated from mixing. Use write_data with 'pair ij' option to store all pair coeffs. (../write_data.cpp:364)
Total wall time: 2:04:10
