LAMMPS (10 Dec 2025)
Reading data file ...
  orthogonal box = (-140 -140 -120) to (140 140 120)
  1 by 1 by 1 MPI processor grid
  reading atoms ...
  107280 atoms
  reading velocities ...
  107280 velocities
  scanning bonds ...
  2 = max bonds/atom
  scanning angles ...
  1 = max angles/atom
  orthogonal box = (-140 -140 -120) to (140 140 120)
  1 by 1 by 1 MPI processor grid
  reading bonds ...
  60000 bonds
  reading angles ...
  30000 angles
Finding 1-2 1-3 1-4 neighbors ...
  special bond factors lj:    0        0        0       
  special bond factors coul:  0        0        0       
     2 = max # of 1-2 neighbors
     1 = max # of 1-3 neighbors
     1 = max # of 1-4 neighbors
     2 = max # of special neighbors
  special bonds CPU = 0.038 seconds
  read_data CPU = 1.336 seconds
17280 atoms in group scaffold
90000 atoms in group water
Finding SHAKE clusters ...
       0 = # of size 2 clusters
       0 = # of size 3 clusters
       0 = # of size 4 clusters
   30000 = # of frozen angles
  find clusters CPU = 0.038 seconds
WARNING: Temperature for fix modify is not for group all (../fix_nh.cpp:1403)
Generated 0 of 6 mixed pair_coeff terms from geometric mixing rule
Neighbor list info ...
  update: every = 1 steps, delay = 0 steps, check = yes
  max neighbors/atom: 4000, page size: 400000
  master list distance cutoff = 12
  ghost atom cutoff = 12
  binsize = 6, bins = 47 47 40
  1 neighbor lists, perpetual/occasional/extra = 1 0 0
  (1) pair lj/cut/coul/cut, perpetual
      attributes: half, newton on
      pair build: half/bin/newton
      stencil: half/bin/3d
      bin: standard
Setting up Verlet run ...
  Unit style    : real
  Current step  : 0
  Time step     : 0.1
Per MPI rank memory allocation (min/avg/max) = 106.8 | 106.8 | 106.8 Mbytes
   Step        Atoms         Temp         c_twater        PotEng         KinEng         TotEng         Press      c_msdwater[4] 
         0      107280   349.07334      449.60813     -302333.36      80410.446     -221922.91     -237.43611      0.0018003134 
       500      107280   242.58942      312.45634     -253220.7       55881.448     -197339.25     -82.175408      0.24234676   
      1000      107280   237.49212      305.89099     -273565.52      54707.264     -218858.26     -150.67048      0.44447499   
      1500      107280   236.79525      304.99342     -268269.66      54546.739     -213722.92     -148.85268      0.63922936   
      2000      107280   235.16712      302.89639     -266831.78      54171.692     -212660.08     -140.33727      0.82068569   
      2500      107280   237.24277      305.56982     -266555.45      54649.825     -211905.63     -141.24667      0.9908145    
      3000      107280   235.31713      303.08959     -276568.53      54206.246     -222362.28     -155.29919      1.1493313    
      3500      107280   233.45442      300.69042     -265551.69      53777.165     -211774.52     -145.55511      1.30179      
      4000      107280   233.40602      300.62808     -263705.09      53766.015     -209939.08     -140.63189      1.4506009    
      4500      107280   233.37042      300.58222     -254692.79      53757.815     -200934.98     -131.14675      1.5967072    
      5000      107280   233.93315      301.30702     -266025.8       53887.442     -212138.36     -147.81761      1.744275     
      5500      107280   232.42626      299.36614     -269347.2       53540.324     -215806.88     -156.23185      1.8954135    
      6000      107280   233.3963       300.61555     -269915.13      53763.776     -216151.35     -160.42544      2.0488495    
      6500      107280   232.63536      299.63546     -276409.5       53588.491     -222821.01     -164.46663      2.2092612    
      7000      107280   232.95814      300.05121     -277010.39      53662.845     -223347.54     -171.24057      2.3703004    
      7500      107280   232.75377      299.78797     -275217         53615.765     -221601.24     -170.33939      2.5297851    
      8000      107280   231.74867      298.4934      -272949.07      53384.238     -219564.83     -164.45763      2.6945978    
      8500      107280   233.29927      300.49058     -258836.26      53741.424     -205094.83     -145.1992       2.8603436    
      9000      107280   233.08328      300.21238     -264124.39      53691.671     -210432.72     -151.45151      3.0350212    
      9500      107280   233.64903      300.94107     -254820.77      53821.992     -200998.78     -144.2808       3.2112716    
     10000      107280   232.7269       299.75336     -258005.09      53609.576     -204395.51     -147.27568      3.3906324    
     10500      107280   232.55062      299.52631     -258112.03      53568.969     -204543.06     -145.71362      3.5723222    
     11000      107280   233.12258      300.263       -258151.43      53700.722     -204450.7      -149.15393      3.7531696    
     11500      107280   231.92418      298.71946     -247290.98      53424.668     -193866.32     -131.49738      3.9457168    
     12000      107280   232.87884      299.94906     -271808.37      53644.576     -218163.8      -165.8378       4.1416412    
     12500      107280   233.9277       301.3         -260705.95      53886.186     -206819.76     -149.60117      4.3361393    
     13000      107280   234.73441      302.33905     -268242         54072.015     -214169.98     -154.63184      4.543897     
     13500      107280   232.0769       298.91617     -264683.15      53459.848     -211223.3      -153.76505      4.7517138    
     14000      107280   232.49107      299.44961     -270734.26      53555.252     -217179.01     -162.63925      4.9630342    
     14500      107280   233.24568      300.42156     -255086.44      53729.08      -201357.36     -149.68569      5.18568      
     15000      107280   233.70018      301.00695     -249348.97      53833.776     -195515.2      -136.47726      5.3998384    
     15500      107280   232.33731      299.25157     -259085.31      53519.834     -205565.48     -149.93637      5.6209571    
     16000      107280   233.39577      300.61487     -253329.05      53763.654     -199565.39     -143.6765       5.8548875    
     16500      107280   233.82745      301.17088     -250316.21      53863.094     -196453.11     -137.95942      6.0885257    
     17000      107280   233.63793      300.92677     -262070.21      53819.436     -208250.78     -148.48344      6.3336401    
     17500      107280   233.29862      300.48974     -257106.78      53741.274     -203365.5      -145.60027      6.583302     
     18000      107280   233.79535      301.12954     -251467.02      53855.699     -197611.32     -136.61696      6.8345693    
     18500      107280   233.35518      300.56259     -263721.63      53754.303     -209967.33     -153.97817      7.0858839    
     19000      107280   232.94019      300.02808     -254829.54      53658.708     -201170.83     -142.23704      7.3440974    
     19500      107280   234.40516      301.91497     -245672.18      53996.17      -191676.01     -131.67814      7.6049172    
     20000      107280   232.96656      300.06205     -252433.96      53664.784     -198769.18     -139.80956      7.8663984    
Loop time of 4664.55 on 1 procs for 20000 steps with 107280 atoms

Performance: 0.037 ns/day, 647.854 hours/ns, 4.288 timesteps/s, 459.980 katom-step/s
99.6% CPU use with 1 MPI tasks x no OpenMP threads

MPI task timing breakdown:
Section |  min time  |  avg time  |  max time  |%varavg| %total
---------------------------------------------------------------
Pair    | 4414.2     | 4414.2     | 4414.2     |   0.0 | 94.63
Bond    | 0.026011   | 0.026011   | 0.026011   |   0.0 |  0.00
Neigh   | 57.927     | 57.927     | 57.927     |   0.0 |  1.24
Comm    | 0.93566    | 0.93566    | 0.93566    |   0.0 |  0.02
Output  | 3.3269     | 3.3269     | 3.3269     |   0.0 |  0.07
Modify  | 178.07     | 178.07     | 178.07     |   0.0 |  3.82
Other   |            | 10.05      |            |       |  0.22

Nlocal:         107280 ave      107280 max      107280 min
Histogram: 1 0 0 0 0 0 0 0 0 0
Nghost:              0 ave           0 max           0 min
Histogram: 1 0 0 0 0 0 0 0 0 0
Neighs:    1.42869e+07 ave 1.42869e+07 max 1.42869e+07 min
Histogram: 1 0 0 0 0 0 0 0 0 0

Total # of neighbors = 14286910
Ave neighs/atom = 133.17403
Ave special neighs/atom = 1.6778523
Neighbor list builds = 125
Dangerous builds = 0
System init for write_data ...
Generated 0 of 6 mixed pair_coeff terms from geometric mixing rule
WARNING: Not all mixed pair coeffs generated from mixing. Use write_data with 'pair ij' option to store all pair coeffs. (../write_data.cpp:364)
Total wall time: 1:17:47
