LAMMPS (10 Dec 2025)
Reading data file ...
  orthogonal box = (-140 -140 -120) to (140 140 120)
  1 by 1 by 1 MPI processor grid
  reading atoms ...
  107280 atoms
  reading velocities ...
  107280 velocities
  scanning bonds ...
  2 = max bonds/atom
  scanning angles ...
  1 = max angles/atom
  orthogonal box = (-140 -140 -120) to (140 140 120)
  1 by 1 by 1 MPI processor grid
  reading bonds ...
  60000 bonds
  reading angles ...
  30000 angles
Finding 1-2 1-3 1-4 neighbors ...
  special bond factors lj:    0        0        0       
  special bond factors coul:  0        0        0       
     2 = max # of 1-2 neighbors
     1 = max # of 1-3 neighbors
     1 = max # of 1-4 neighbors
     2 = max # of special neighbors
  special bonds CPU = 0.039 seconds
  read_data CPU = 1.431 seconds
17280 atoms in group scaffold
90000 atoms in group water
WARNING: Temperature for fix modify is not for group all (../fix_nh.cpp:1403)
Generated 0 of 6 mixed pair_coeff terms from geometric mixing rule
Neighbor list info ...
  update: every = 1 steps, delay = 0 steps, check = yes
  max neighbors/atom: 2000, page size: 100000
  master list distance cutoff = 12
  ghost atom cutoff = 12
  binsize = 6, bins = 47 47 40
  1 neighbor lists, perpetual/occasional/extra = 1 0 0
  (1) pair lj/cut/coul/cut, perpetual
      attributes: half, newton on
      pair build: half/bin/newton
      stencil: half/bin/3d
      bin: standard
Setting up Verlet run ...
  Unit style    : real
  Current step  : 0
  Time step     : 0.25
Per MPI rank memory allocation (min/avg/max) = 89.62 | 89.62 | 89.62 Mbytes
   Step        Atoms         Temp         c_twater        PotEng         KinEng         TotEng         Press      c_msdwater[4] 
         0      107280   42.083267      50.163344     -257709.22      13457.316     -244251.91     -239.27389      0            
       100      107280   42.06914       50.146504     -264397.05      13452.799     -250944.26     -246.95515      0.022878327  
       200      107280   42.208016      50.312045     -263106.58      13497.208     -249609.37     -242.4574       0.043287215  
       300      107280   42.193599      50.29486      -261617.26      13492.598     -248124.66     -242.12557      0.058019015  
       400      107280   42.31258       50.436686     -266101.98      13530.646     -252571.33     -244.9072       0.070954562  
       500      107280   42.223412      50.330398     -258650.95      13502.132     -245148.82     -240.47472      0.082858886  
       600      107280   42.329154      50.456442     -257236.42      13535.946     -243700.48     -234.5094       0.095035028  
       700      107280   42.19277       50.293872     -255920.81      13492.333     -242428.48     -236.73322      0.10694045   
       800      107280   42.04907       50.122581     -254771.49      13446.381     -241325.11     -232.67012      0.1163452    
       900      107280   42.139859      50.230802     -260176.42      13475.413     -246701.01     -241.11971      0.12488808   
      1000      107280   42.186157      50.285989     -261883.94      13490.219     -248393.72     -243.3607       0.13341522   
      1100      107280   42.225691      50.333113     -258741.24      13502.86      -245238.38     -237.86962      0.14164814   
      1200      107280   42.021349      50.089538     -263357.99      13437.516     -249920.47     -245.01553      0.15053509   
      1300      107280   42.262561      50.377063     -263054.48      13514.651     -249539.83     -240.51229      0.15987182   
      1400      107280   42.275875      50.392933     -262921.47      13518.908     -249402.56     -243.39075      0.16878637   
      1500      107280   42.009833      50.07581      -260595.88      13433.834     -247162.05     -235.69692      0.17754212   
      1600      107280   41.843817      49.877919     -255405.98      13380.746     -242025.24     -234.98244      0.18661418   
      1700      107280   42.130189      50.219275     -259451.86      13472.321     -245979.54     -237.85089      0.19605579   
      1800      107280   42.146613      50.238852     -261847.22      13477.573     -248369.64     -244.32368      0.20494993   
      1900      107280   42.139209      50.230028     -262790.28      13475.206     -249315.08     -243.73573      0.21360786   
      2000      107280   42.231644      50.34021      -259395.81      13504.764     -245891.05     -237.12968      0.22221239   
      2100      107280   42.001391      50.065747     -265517.9       13431.134     -252086.77     -246.95071      0.23133947   
      2200      107280   42.276996      50.394269     -255157.05      13519.267     -241637.79     -229.79474      0.24020791   
      2300      107280   42.194842      50.296342     -252995.01      13492.996     -239502.02     -232.7214       0.24894182   
      2400      107280   42.051597      50.125594     -256464.82      13447.189     -243017.63     -227.71921      0.25736326   
      2500      107280   41.969616      50.027872     -255905.88      13420.973     -242484.91     -234.34163      0.26683004   
      2600      107280   42.085488      50.165992     -251806.24      13458.027     -238348.21     -221.65438      0.27682859   
      2700      107280   42.197023      50.298942     -261231.59      13493.693     -247737.89     -241.64927      0.28617552   
      2800      107280   42.196007      50.297731     -256826.2       13493.368     -243332.83     -231.49639      0.29483896   
      2900      107280   42.001293      50.065631     -267361.26      13431.103     -253930.16     -250.19285      0.30399452   
      3000      107280   42.172252      50.269414     -268751.24      13485.772     -255265.47     -249.72334      0.31268504   
      3100      107280   42.033992      50.104608     -259335.45      13441.559     -245893.89     -238.42505      0.32205835   
      3200      107280   41.967174      50.024961     -257472.04      13420.193     -244051.85     -234.27607      0.33115359   
      3300      107280   42.272623      50.389056     -255206.63      13517.868     -241688.77     -229.21961      0.33972536   
      3400      107280   42.129997      50.219046     -259996.02      13472.26      -246523.76     -236.65413      0.3483436    
      3500      107280   42.156105      50.250167     -261162.3       13480.608     -247681.69     -233.94392      0.35623459   
      3600      107280   41.980924      50.041351     -263262.72      13424.589     -249838.13     -241.35518      0.36572212   
      3700      107280   41.853578      49.889554     -259435.44      13383.867     -246051.58     -233.34728      0.37473186   
      3800      107280   42.126639      50.215043     -268935.33      13471.186     -255464.14     -249.54161      0.38327603   
      3900      107280   42.066896      50.14383      -263883.86      13452.082     -250431.78     -239.07714      0.39174978   
      4000      107280   42.072133      50.150072     -253312.93      13453.756     -239859.18     -228.08847      0.40069654   
      4100      107280   41.927312      49.977445     -258686.62      13407.445     -245279.18     -235.45565      0.40892057   
      4200      107280   42.107014      50.19165      -259675.06      13464.91      -246210.15     -235.51623      0.41773363   
      4300      107280   42.063354      50.139608     -260578.57      13450.949     -247127.62     -236.55444      0.42705322   
      4400      107280   42.113704      50.199625     -261802.64      13467.05      -248335.59     -234.97141      0.43617044   
      4500      107280   41.954324      50.009644     -263833.18      13416.083     -250417.1      -240.25037      0.44541902   
      4600      107280   42.098013      50.180921     -262739.53      13462.032     -249277.5      -236.93729      0.45422059   
      4700      107280   42.065995      50.142755     -263233.48      13451.793     -249781.69     -239.64419      0.46387926   
      4800      107280   42.123938      50.211824     -258290.4       13470.322     -244820.07     -231.53392      0.47285337   
      4900      107280   41.946858      50.000745     -258126.3       13413.696     -244712.6      -233.14849      0.48206715   
      5000      107280   42.03424       50.104904     -263715.83      13441.639     -250274.2      -239.7017       0.49076204   
Loop time of 889.291 on 1 procs for 5000 steps with 107280 atoms

Performance: 0.121 ns/day, 197.620 hours/ns, 5.622 timesteps/s, 603.177 katom-step/s
99.7% CPU use with 1 MPI tasks x no OpenMP threads

MPI task timing breakdown:
Section |  min time  |  avg time  |  max time  |%varavg| %total
---------------------------------------------------------------
Pair    | 842.01     | 842.01     | 842.01     |   0.0 | 94.68
Bond    | 17.925     | 17.925     | 17.925     |   0.0 |  2.02
Neigh   | 14.095     | 14.095     | 14.095     |   0.0 |  1.58
Comm    | 0.15826    | 0.15826    | 0.15826    |   0.0 |  0.02
Output  | 0.87523    | 0.87523    | 0.87523    |   0.0 |  0.10
Modify  | 11.56      | 11.56      | 11.56      |   0.0 |  1.30
Other   |            | 2.669      |            |       |  0.30

Nlocal:         107280 ave      107280 max      107280 min
Histogram: 1 0 0 0 0 0 0 0 0 0
Nghost:              0 ave           0 max           0 min
Histogram: 1 0 0 0 0 0 0 0 0 0
Neighs:    1.05381e+07 ave 1.05381e+07 max 1.05381e+07 min
Histogram: 1 0 0 0 0 0 0 0 0 0

Total # of neighbors = 10538138
Ave neighs/atom = 98.23022
Ave special neighs/atom = 1.6778523
Neighbor list builds = 37
Dangerous builds = 0
System init for write_data ...
Generated 0 of 6 mixed pair_coeff terms from geometric mixing rule
WARNING: Not all mixed pair coeffs generated from mixing. Use write_data with 'pair ij' option to store all pair coeffs. (../write_data.cpp:364)
Total wall time: 0:14:52
