LAMMPS (10 Dec 2025)
Reading data file ...
  orthogonal box = (-140 -140 -120) to (140 140 120)
  1 by 1 by 1 MPI processor grid
  reading atoms ...
  107280 atoms
  reading velocities ...
  107280 velocities
  scanning bonds ...
  2 = max bonds/atom
  scanning angles ...
  1 = max angles/atom
  orthogonal box = (-140 -140 -120) to (140 140 120)
  1 by 1 by 1 MPI processor grid
  reading bonds ...
  60000 bonds
  reading angles ...
  30000 angles
Finding 1-2 1-3 1-4 neighbors ...
  special bond factors lj:    0        0        0       
  special bond factors coul:  0        0        0       
     2 = max # of 1-2 neighbors
     1 = max # of 1-3 neighbors
     1 = max # of 1-4 neighbors
     2 = max # of special neighbors
  special bonds CPU = 0.036 seconds
  read_data CPU = 1.180 seconds
17280 atoms in group scaffold
90000 atoms in group water
Generated 0 of 6 mixed pair_coeff terms from geometric mixing rule
Neighbor list info ...
  update: every = 1 steps, delay = 0 steps, check = yes
  max neighbors/atom: 2000, page size: 100000
  master list distance cutoff = 12
  ghost atom cutoff = 12
  binsize = 6, bins = 47 47 40
  1 neighbor lists, perpetual/occasional/extra = 1 0 0
  (1) pair lj/cut/coul/cut, perpetual
      attributes: half, newton on
      pair build: half/bin/newton
      stencil: half/bin/3d
      bin: standard
Setting up Verlet run ...
  Unit style    : real
  Current step  : 0
  Time step     : 0.1
Per MPI rank memory allocation (min/avg/max) = 85.47 | 85.47 | 85.47 Mbytes
   Step        Atoms         Temp          PotEng         KinEng         TotEng         Press     
         0      107280   8.3892467     -158120.85      2682.6992     -155438.15     -137.60563    
       100      107280   50.343427     -167862.53      16098.737     -151763.79     -196.19728    
       200      107280   114.73082     -190297.68      36688.429     -153609.25     -291.84999    
       300      107280   137.4309      -203956.65      43947.422     -160009.23     -339.7586     
       400      107280   135.93924     -205519.32      43470.424     -162048.9      -352.29392    
       500      107280   133.27038     -207861.23      42616.979     -165244.25     -362.60368    
       600      107280   129.90433     -211414.72      41540.588     -169874.13     -367.37931    
       700      107280   126.64202     -220077.38      40497.372     -179580.01     -375.82506    
       800      107280   123.38476     -219139.51      39455.772     -179683.74     -371.05926    
       900      107280   120.44897     -222480.19      38516.969     -183963.22     -370.77901    
      1000      107280   117.32417     -231771.01      37517.727     -194253.28     -377.72156    
      1100      107280   113.73413     -229755.21      36369.708     -193385.51     -369.85409    
      1200      107280   110.35168     -239429.89      35288.075     -204141.81     -380.29405    
      1300      107280   106.80072     -244339.7       34152.554     -210187.15     -384.09399    
      1400      107280   103.3826      -247215.75      33059.513     -214156.24     -388.55048    
      1500      107280   100.12553     -251503.5       32017.975     -219485.53     -396.01219    
      1600      107280   97.019615     -255341.92      31024.77      -224317.15     -404.09276    
      1700      107280   93.708797     -256521.31      29966.042     -226555.27     -407.98316    
      1800      107280   90.688642     -258153.31      29000.262     -229153.05     -414.14426    
      1900      107280   87.64468      -260803.26      28026.869     -232776.39     -419.01208    
      2000      107280   84.976307     -262138.97      27173.581     -234965.38     -422.54648    
      2100      107280   82.62618      -257322.73      26422.061     -230900.67     -417.86375    
      2200      107280   80.287373     -260065.48      25674.161     -234391.32     -423.04037    
      2300      107280   77.65573      -260403.75      24832.619     -235571.13     -422.22756    
      2400      107280   75.371044     -264065.87      24102.026     -239963.85     -424.69426    
      2500      107280   73.226817     -265535.21      23416.349     -242118.86     -424.62393    
      2600      107280   71.506305     -268146.49      22866.166     -245280.32     -426.2226     
      2700      107280   69.939541     -268095.93      22365.149     -245730.78     -425.2172     
      2800      107280   68.18609      -269986.75      21804.433     -248182.32     -425.90029    
      2900      107280   66.584219     -272894.2       21292.19      -251602.01     -428.62001    
      3000      107280   65.143691     -275379.24      20831.54      -254547.7      -430.5169     
      3100      107280   63.962525     -280621.85      20453.829     -260168.02     -436.49049    
      3200      107280   62.762815     -284183.35      20070.188     -264113.16     -440.75436    
      3300      107280   61.670825     -284890.86      19720.993     -265169.87     -441.02111    
      3400      107280   60.707699     -287122.14      19413.006     -267709.13     -441.2784     
      3500      107280   59.762202     -288937.14      19110.657     -269826.48     -441.394      
      3600      107280   58.840389     -292455.35      18815.881     -273639.47     -441.56086    
      3700      107280   58.246197     -292209.11      18625.871     -273583.24     -437.96635    
      3800      107280   57.60891      -284505.12      18422.081     -266083.04     -424.3306     
      3900      107280   57.229267     -289721         18300.679     -271420.32     -428.09917    
      4000      107280   56.50964      -291047.4       18070.558     -272976.85     -427.53546    
      4100      107280   55.894447     -288989.31      17873.833     -271115.47     -421.70742    
      4200      107280   55.518307     -291087.02      17753.551     -273333.47     -421.16099    
      4300      107280   55.167018     -288439.96      17641.217     -270798.74     -414.79409    
      4400      107280   54.695539     -289490.39      17490.448     -271999.94     -413.26003    
      4500      107280   54.625885     -284872.26      17468.174     -267404.09     -405.57971    
      4600      107280   54.273565     -287030.86      17355.51      -269675.35     -406.68381    
      4700      107280   54.290168     -288317.23      17360.819     -270956.41     -407.26227    
      4800      107280   54.245218     -286210.61      17346.445     -268864.17     -402.24026    
      4900      107280   54.040384     -290793.91      17280.943     -273512.97     -404.53139    
      5000      107280   54.297622     -290795.02      17363.203     -273431.81     -402.92907    
Loop time of 875.003 on 1 procs for 5000 steps with 107280 atoms

Performance: 0.049 ns/day, 486.113 hours/ns, 5.714 timesteps/s, 613.027 katom-step/s
99.5% CPU use with 1 MPI tasks x no OpenMP threads

MPI task timing breakdown:
Section |  min time  |  avg time  |  max time  |%varavg| %total
---------------------------------------------------------------
Pair    | 824.68     | 824.68     | 824.68     |   0.0 | 94.25
Bond    | 17.777     | 17.777     | 17.777     |   0.0 |  2.03
Neigh   | 8.5562     | 8.5562     | 8.5562     |   0.0 |  0.98
Comm    | 0.11656    | 0.11656    | 0.11656    |   0.0 |  0.01
Output  | 0.8532     | 0.8532     | 0.8532     |   0.0 |  0.10
Modify  | 20.412     | 20.412     | 20.412     |   0.0 |  2.33
Other   |            | 2.611      |            |       |  0.30

Nlocal:         107280 ave      107280 max      107280 min
Histogram: 1 0 0 0 0 0 0 0 0 0
Nghost:              0 ave           0 max           0 min
Histogram: 1 0 0 0 0 0 0 0 0 0
Neighs:     1.0097e+07 ave  1.0097e+07 max  1.0097e+07 min
Histogram: 1 0 0 0 0 0 0 0 0 0

Total # of neighbors = 10097047
Ave neighs/atom = 94.118633
Ave special neighs/atom = 1.6778523
Neighbor list builds = 22
Dangerous builds = 0
System init for write_data ...
Generated 0 of 6 mixed pair_coeff terms from geometric mixing rule
WARNING: Not all mixed pair coeffs generated from mixing. Use write_data with 'pair ij' option to store all pair coeffs. (../write_data.cpp:364)
Total wall time: 0:14:37
