LAMMPS (10 Dec 2025)
Reading data file ...
  orthogonal box = (-140 -140 -120) to (140 140 120)
  1 by 1 by 1 MPI processor grid
WARNING: Pair style lj/cut/coul/cut in data file differs from currently defined pair style zero (../read_data.cpp:811)
WARNING: Bond style harmonic in data file differs from currently defined bond style zero (../read_data.cpp:835)
WARNING: Angle style harmonic in data file differs from currently defined angle style zero (../read_data.cpp:848)
  reading atoms ...
  107265 atoms
  reading velocities ...
  107265 velocities
  scanning bonds ...
  2 = max bonds/atom
  scanning angles ...
  1 = max angles/atom
  orthogonal box = (-140 -140 -120) to (140 140 120)
  1 by 1 by 1 MPI processor grid
  reading bonds ...
  59974 bonds
  reading angles ...
  29987 angles
Finding 1-2 1-3 1-4 neighbors ...
  special bond factors lj:    0        0        0       
  special bond factors coul:  0        0        0       
     2 = max # of 1-2 neighbors
     1 = max # of 1-3 neighbors
     1 = max # of 1-4 neighbors
     2 = max # of special neighbors
  special bonds CPU = 0.041 seconds
  read_data CPU = 1.363 seconds
17280 atoms in group scaffold
89961 atoms in group water
29987 atoms in group oxygen
59974 atoms in group hydrogen
24 atoms in group chromophore
17304 atoms in group fixed_support
Finding SHAKE clusters ...
       0 = # of size 2 clusters
       0 = # of size 3 clusters
       0 = # of size 4 clusters
   29987 = # of frozen angles
  find clusters CPU = 0.038 seconds
WARNING: Temperature for fix modify is not for group all (../fix_nh.cpp:1403)
Generated 0 of 15 mixed pair_coeff terms from geometric mixing rule
Neighbor list info ...
  update: every = 1 steps, delay = 0 steps, check = yes
  max neighbors/atom: 4000, page size: 400000
  master list distance cutoff = 12
  ghost atom cutoff = 12
  binsize = 6, bins = 47 47 40
  1 neighbor lists, perpetual/occasional/extra = 1 0 0
  (1) pair lj/cut/coul/cut, perpetual
      attributes: half, newton on
      pair build: half/bin/newton
      stencil: half/bin/3d
      bin: standard
Setting up Verlet run ...
  Unit style    : real
  Current step  : 10000
  Time step     : 0.05
Per MPI rank memory allocation (min/avg/max) = 117.5 | 117.5 | 117.5 Mbytes
   Step        Atoms         Temp         c_twater        PotEng         KinEng         TotEng         Press      c_msdwater[4] 
     10000      107265   233.50682      300.88051     -264458.64      53787.843     -210670.8      -96.872231      1.4508475e-14
     10500      107265   232.84451      300.0271      -267349.71      53635.281     -213714.43     -137.49152      0.025846523  
     11000      107265   233.72801      301.16552     -260464.76      53838.794     -206625.96     -131.0572       0.088638442  
     11500      107265   233.88505      301.36787     -263981.18      53874.967     -210106.22     -136.85725      0.16689185   
     12000      107265   233.65572      301.07237     -264098.41      53822.142     -210276.27     -136.37849      0.24743765   
     12500      107265   233.17343      300.45093     -259885.69      53711.048     -206174.65     -135.40121      0.32601107   
     13000      107265   234.07384      301.61112     -259477.51      53918.453     -205559.06     -137.49137      0.40200741   
     13500      107265   234.0911       301.63337     -251353.41      53922.43      -197430.98     -125.52521      0.47529508   
     14000      107265   233.27489      300.58166     -262134.41      53734.419     -208399.99     -139.58679      0.54501742   
     14500      107265   233.16705      300.4427      -265155.13      53709.577     -211445.55     -146.35073      0.61175173   
     15000      107265   234.0628       301.5969      -265136.63      53915.911     -211220.72     -147.08939      0.67640183   
     15500      107265   233.35548      300.6855      -260492.03      53752.983     -206739.05     -140.36725      0.74045249   
     16000      107265   233.22639      300.51916     -262755.81      53723.246     -209032.57     -143.84935      0.80420865   
     16500      107265   233.61879      301.02478     -265353.9       53813.634     -211540.27     -149.09016      0.86712641   
     17000      107265   234.57192      302.25292     -269453.03      54033.187     -215419.85     -157.66517      0.92951956   
     17500      107265   233.24854      300.5477      -268201.57      53728.349     -214473.22     -155.84629      0.99180774   
     18000      107265   233.09415      300.34877     -254035.27      53692.785     -200342.48     -139.222        1.0542751    
     18500      107265   232.60061      299.71283     -259375.3       53579.099     -205796.2      -147.73636      1.1166433    
     19000      107265   232.89103      300.08704     -254084.77      53645.996     -200438.78     -140.8889       1.1789755    
     19500      107265   234.00164      301.51809     -260455.7       53901.822     -206553.88     -150.45371      1.2410917    
     20000      107265   233.38008      300.7172      -251762.14      53758.648     -198003.5      -139.01783      1.3029978    
Loop time of 2684.73 on 1 procs for 10000 steps with 107265 atoms

Performance: 0.016 ns/day, 1491.518 hours/ns, 3.725 timesteps/s, 399.537 katom-step/s
99.7% CPU use with 1 MPI tasks x no OpenMP threads

MPI task timing breakdown:
Section |  min time  |  avg time  |  max time  |%varavg| %total
---------------------------------------------------------------
Pair    | 2557.3     | 2557.3     | 2557.3     |   0.0 | 95.25
Bond    | 0.015818   | 0.015818   | 0.015818   |   0.0 |  0.00
Neigh   | 15.959     | 15.959     | 15.959     |   0.0 |  0.59
Comm    | 0.31044    | 0.31044    | 0.31044    |   0.0 |  0.01
Output  | 2.1846     | 2.1846     | 2.1846     |   0.0 |  0.08
Modify  | 104.05     | 104.05     | 104.05     |   0.0 |  3.88
Other   |            | 4.92       |            |       |  0.18

Nlocal:         107265 ave      107265 max      107265 min
Histogram: 1 0 0 0 0 0 0 0 0 0
Nghost:              0 ave           0 max           0 min
Histogram: 1 0 0 0 0 0 0 0 0 0
Neighs:    1.63473e+07 ave 1.63473e+07 max 1.63473e+07 min
Histogram: 1 0 0 0 0 0 0 0 0 0

Total # of neighbors = 16347287
Ave neighs/atom = 152.40094
Ave special neighs/atom = 1.6773598
Neighbor list builds = 31
Dangerous builds = 0
System init for write_data ...
Generated 0 of 15 mixed pair_coeff terms from geometric mixing rule
WARNING: Not all mixed pair coeffs generated from mixing. Use write_data with 'pair ij' option to store all pair coeffs. (../write_data.cpp:364)
Total wall time: 0:44:47
