LAMMPS (10 Dec 2025)
Reading data file ...
  orthogonal box = (-140 -140 -120) to (140 140 120)
  1 by 1 by 1 MPI processor grid
WARNING: Bond style harmonic in data file differs from currently defined bond style zero (../read_data.cpp:835)
WARNING: Angle style harmonic in data file differs from currently defined angle style zero (../read_data.cpp:848)
  reading atoms ...
  107265 atoms
  reading velocities ...
  107265 velocities
  scanning bonds ...
  2 = max bonds/atom
  scanning angles ...
  1 = max angles/atom
  orthogonal box = (-140 -140 -120) to (140 140 120)
  1 by 1 by 1 MPI processor grid
  reading bonds ...
  59974 bonds
  reading angles ...
  29987 angles
Finding 1-2 1-3 1-4 neighbors ...
  special bond factors lj:    0        0        0       
  special bond factors coul:  0        0        0       
     2 = max # of 1-2 neighbors
     1 = max # of 1-3 neighbors
     1 = max # of 1-4 neighbors
     2 = max # of special neighbors
  special bonds CPU = 0.039 seconds
  read_data CPU = 1.313 seconds
17280 atoms in group scaffold
89961 atoms in group water
29987 atoms in group oxygen
59974 atoms in group hydrogen
24 atoms in group chromophore
17304 atoms in group fixed_support
Finding SHAKE clusters ...
       0 = # of size 2 clusters
       0 = # of size 3 clusters
       0 = # of size 4 clusters
   29987 = # of frozen angles
  find clusters CPU = 0.040 seconds
WARNING: Temperature for fix modify is not for group all (../fix_nh.cpp:1403)
Generated 0 of 15 mixed pair_coeff terms from geometric mixing rule
Neighbor list info ...
  update: every = 1 steps, delay = 0 steps, check = yes
  max neighbors/atom: 4000, page size: 400000
  master list distance cutoff = 12
  ghost atom cutoff = 12
  binsize = 6, bins = 47 47 40
  1 neighbor lists, perpetual/occasional/extra = 1 0 0
  (1) pair lj/cut/coul/cut, perpetual
      attributes: half, newton on
      pair build: half/bin/newton
      stencil: half/bin/3d
      bin: standard
Setting up Verlet run ...
  Unit style    : real
  Current step  : 0
  Time step     : 0.05
Per MPI rank memory allocation (min/avg/max) = 116 | 116 | 116 Mbytes
   Step        Atoms         Temp         c_twater        PotEng         KinEng         TotEng         Press      c_msdwater[4] 
         0      107265   233.46819      300.83072     -249150.4       53778.943     -195371.46     -67.07418       8.8888826e-24
       500      107265   234.68314      302.39623     -253582.02      54058.806     -199523.21     -73.828124      0.025566039  
      1000      107265   232.72061      299.86746     -253996         53606.742     -200389.26     -73.596844      0.087432589  
      1500      107265   233.42056      300.76936     -247250.73      53767.972     -193482.76     -64.540739      0.16303829   
      2000      107265   232.36115      299.40428     -251034.19      53523.941     -197510.24     -62.55869       0.23804735   
      2500      107265   233.7886       301.24358     -254443.06      53852.749     -200590.31     -63.624538      0.30857109   
      3000      107265   232.7575       299.91498     -249964.31      53615.238     -196349.07     -60.798184      0.37524378   
      3500      107265   232.57122      299.67496     -256511.91      53572.329     -202939.59     -71.84031       0.437771     
      4000      107265   233.41149      300.75767     -258467.64      53765.884     -204701.75     -75.121341      0.4955413    
      4500      107265   232.44979      299.51849     -247577.96      53544.358     -194033.6      -59.778083      0.54965096   
      5000      107265   233.15665      300.4293      -255724.96      53707.182     -202017.77     -71.986488      0.60109626   
Loop time of 1287.21 on 1 procs for 5000 steps with 107265 atoms

Performance: 0.017 ns/day, 1430.236 hours/ns, 3.884 timesteps/s, 416.656 katom-step/s
99.7% CPU use with 1 MPI tasks x no OpenMP threads

MPI task timing breakdown:
Section |  min time  |  avg time  |  max time  |%varavg| %total
---------------------------------------------------------------
Pair    | 1232.9     | 1232.9     | 1232.9     |   0.0 | 95.78
Bond    | 0.0071397  | 0.0071397  | 0.0071397  |   0.0 |  0.00
Neigh   | 7.5848     | 7.5848     | 7.5848     |   0.0 |  0.59
Comm    | 0.14982    | 0.14982    | 0.14982    |   0.0 |  0.01
Output  | 1.15       | 1.15       | 1.15       |   0.0 |  0.09
Modify  | 42.906     | 42.906     | 42.906     |   0.0 |  3.33
Other   |            | 2.481      |            |       |  0.19

Nlocal:         107265 ave      107265 max      107265 min
Histogram: 1 0 0 0 0 0 0 0 0 0
Nghost:              0 ave           0 max           0 min
Histogram: 1 0 0 0 0 0 0 0 0 0
Neighs:    1.58381e+07 ave 1.58381e+07 max 1.58381e+07 min
Histogram: 1 0 0 0 0 0 0 0 0 0

Total # of neighbors = 15838111
Ave neighs/atom = 147.65404
Ave special neighs/atom = 1.6773598
Neighbor list builds = 15
Dangerous builds = 0
System init for write_data ...
Generated 0 of 15 mixed pair_coeff terms from geometric mixing rule
WARNING: Not all mixed pair coeffs generated from mixing. Use write_data with 'pair ij' option to store all pair coeffs. (../write_data.cpp:364)
Total wall time: 0:21:30
