LAMMPS (10 Dec 2025)
Reading data file ...
  orthogonal box = (-140 -140 -120) to (140 140 120)
  1 by 1 by 1 MPI processor grid
  reading atoms ...
  90000 atoms
  reading velocities ...
  90000 velocities
  scanning bonds ...
  2 = max bonds/atom
  scanning angles ...
  1 = max angles/atom
  orthogonal box = (-140 -140 -120) to (140 140 120)
  1 by 1 by 1 MPI processor grid
  reading bonds ...
  60000 bonds
  reading angles ...
  30000 angles
Finding 1-2 1-3 1-4 neighbors ...
  special bond factors lj:    0        0        0       
  special bond factors coul:  0        0        0       
     2 = max # of 1-2 neighbors
     1 = max # of 1-3 neighbors
     1 = max # of 1-4 neighbors
     2 = max # of special neighbors
  special bonds CPU = 0.034 seconds
  read_data CPU = 1.167 seconds
90000 atoms in group water
30000 atoms in group oxygen
60000 atoms in group hydrogen
Finding SHAKE clusters ...
       0 = # of size 2 clusters
       0 = # of size 3 clusters
       0 = # of size 4 clusters
   30000 = # of frozen angles
  find clusters CPU = 0.036 seconds
WARNING: Temperature for fix modify is not for group all (../fix_nh.cpp:1403)
Generated 0 of 6 mixed pair_coeff terms from geometric mixing rule
Neighbor list info ...
  update: every = 1 steps, delay = 0 steps, check = yes
  max neighbors/atom: 4000, page size: 400000
  master list distance cutoff = 12
  ghost atom cutoff = 12
  binsize = 6, bins = 47 47 40
  1 neighbor lists, perpetual/occasional/extra = 1 0 0
  (1) pair lj/cut/coul/cut, perpetual
      attributes: half, newton on
      pair build: half/bin/newton
      stencil: half/bin/3d
      bin: standard
Setting up Verlet run ...
  Unit style    : real
  Current step  : 0
  Time step     : 0.1
Per MPI rank memory allocation (min/avg/max) = 102.2 | 102.2 | 102.2 Mbytes
   Step        Atoms         Temp         c_twater        PotEng         KinEng         TotEng         Press      c_msdwater[4] 
         0       90000   300.06205      300.06205     -132905.78      53664.784     -79241          68.729314      2.2417498e-24
       500       90000   302.08808      302.08808     -132421.6       54027.131     -78394.47       14.424395      0.090129976  
      1000       90000   298.93491      298.93491     -128977.27      53463.2       -75514.066     -12.27674       0.2511906    
      1500       90000   298.50487      298.50487     -142429         53386.29      -89042.713     -24.520675      0.40713113   
      2000       90000   299.40849      299.40849     -134792.32      53547.898     -81244.427     -11.713512      0.55384308   
      2500       90000   299.90825      299.90825     -128171.38      53637.277     -74534.103     -7.4957872      0.68946343   
      3000       90000   300.69966      300.69966     -144074.93      53778.818     -90296.107     -23.943663      0.82167666   
      3500       90000   300.80329      300.80329     -143060.82      53797.352     -89263.473     -20.325802      0.95411323   
      4000       90000   301.31584      301.31584     -147444.22      53889.019     -93555.202     -31.348586      1.0919487    
      4500       90000   300.80875      300.80875     -133815.6       53798.329     -80017.274     -20.039343      1.2341779    
      5000       90000   301.31195      301.31195     -138368.9       53888.323     -84480.576     -24.434108      1.3763136    
      5500       90000   300.62416      300.62416     -138061.59      53765.315     -84296.278     -23.555533      1.5193273    
      6000       90000   301.24708      301.24708     -131823.21      53876.721     -77946.489     -11.531184      1.6685267    
      6500       90000   301.45982      301.45982     -144235.28      53914.769     -90320.512     -27.785391      1.8247113    
      7000       90000   300.49344      300.49344     -135483.32      53741.936     -81741.388     -21.786604      1.9886658    
      7500       90000   301.67708      301.67708     -134364.41      53953.625     -80410.781     -17.645622      2.1580432    
      8000       90000   301.50324      301.50324     -140683.56      53922.535     -86761.022     -26.432529      2.3309702    
      8500       90000   301.55841      301.55841     -128423.3       53932.402     -74490.895     -12.224421      2.5094033    
      9000       90000   302.10771      302.10771     -120516         54030.642     -66485.354     -4.3614366      2.6918101    
      9500       90000   300.95029      300.95029     -115412.85      53823.642     -61589.206      9.5452461      2.8812698    
     10000       90000   300.91603      300.91603     -121112.91      53817.514     -67295.4        1.4737085      3.0753472    
     10500       90000   302.36136      302.36136     -115455.12      54076.006     -61379.114      4.9868965      3.2737013    
     11000       90000   301.34379      301.34379     -120136.16      53894.017     -66242.142     -2.8532007      3.4747944    
     11500       90000   300.83629      300.83629     -124158.93      53803.253     -70355.681     -5.4001396      3.6776052    
     12000       90000   301.0073       301.0073      -128667.68      53833.837     -74833.842     -12.224062      3.8869028    
     12500       90000   301.60345      301.60345     -122209.83      53940.457     -68269.378     -5.7309947      4.1011201    
     13000       90000   302.17398      302.17398     -116430.55      54042.493     -62388.053      5.1775502      4.323469     
     13500       90000   299.53992      299.53992     -125247.91      53571.403     -71676.508     -8.1473025      4.5502193    
     14000       90000   300.76775      300.76775     -111203.43      53790.996     -57412.436      6.6729737      4.7884438    
     14500       90000   299.72847      299.72847     -121499.72      53605.125     -67894.595     -2.2596268      5.0329129    
     15000       90000   301.39791      301.39791     -119468.22      53903.697     -65564.526     -5.3665541      5.2803139    
     15500       90000   302.29896      302.29896     -132444.61      54064.846     -78379.759     -15.965423      5.5262609    
     16000       90000   299.60485      299.60485     -118741.34      53583.015     -65158.323      3.4981087      5.7733534    
     16500       90000   301.3456       301.3456      -111037.67      53894.342     -57143.324      9.8223244      6.0272082    
     17000       90000   300.37496      300.37496     -105079.75      53720.746     -51359.007      12.37186       6.2885117    
     17500       90000   299.7822       299.7822      -119375.9       53614.733     -65761.168     -4.2428256      6.5523896    
     18000       90000   299.82772      299.82772     -115610.58      53622.875     -61987.701      5.3232291      6.817572     
     18500       90000   302.36808      302.36808     -114569.96      54077.207     -60492.757      5.5609107      7.0834926    
     19000       90000   301.5111       301.5111      -119511.55      53923.941     -65587.614     -1.7081544      7.3614885    
     19500       90000   302.88083      302.88083     -113579.85      54168.91      -59410.941      3.3919041      7.64886      
     20000       90000   302.23823      302.23823     -116669.99      54053.983     -62616.009      1.1205886      7.9348304    
Loop time of 4831.43 on 1 procs for 20000 steps with 90000 atoms

Performance: 0.036 ns/day, 671.033 hours/ns, 4.140 timesteps/s, 372.560 katom-step/s
99.5% CPU use with 1 MPI tasks x no OpenMP threads

MPI task timing breakdown:
Section |  min time  |  avg time  |  max time  |%varavg| %total
---------------------------------------------------------------
Pair    | 4598       | 4598       | 4598       |   0.0 | 95.17
Bond    | 0.026738   | 0.026738   | 0.026738   |   0.0 |  0.00
Neigh   | 58.273     | 58.273     | 58.273     |   0.0 |  1.21
Comm    | 0.80283    | 0.80283    | 0.80283    |   0.0 |  0.02
Output  | 3.3531     | 3.3531     | 3.3531     |   0.0 |  0.07
Modify  | 162.41     | 162.41     | 162.41     |   0.0 |  3.36
Other   |            | 8.59       |            |       |  0.18

Nlocal:          90000 ave       90000 max       90000 min
Histogram: 1 0 0 0 0 0 0 0 0 0
Nghost:              0 ave           0 max           0 min
Histogram: 1 0 0 0 0 0 0 0 0 0
Neighs:    1.51767e+07 ave 1.51767e+07 max 1.51767e+07 min
Histogram: 1 0 0 0 0 0 0 0 0 0

Total # of neighbors = 15176722
Ave neighs/atom = 168.63024
Ave special neighs/atom = 2
Neighbor list builds = 125
Dangerous builds = 0
System init for write_data ...
Generated 0 of 6 mixed pair_coeff terms from geometric mixing rule
WARNING: Not all mixed pair coeffs generated from mixing. Use write_data with 'pair ij' option to store all pair coeffs. (../write_data.cpp:364)
Total wall time: 1:20:34
